# vtk DataFile Version 2.0
Generated by CAD mesh processing
ASCII
DATASET UNSTRUCTURED_GRID

POINTS 132 float
42.0 24.246592074633 37.514280032895
42.0 -24.24659207463 37.514280032895
42.0 -24.24659207463 25.0
42.0 24.246592074633 25.0
42.0 39.246592074633 52.514280032895
42.0 -39.24659207463 52.514280032895
42.0 54.246592074633 25.0
42.0 -54.24659207463 25.0
42.0 -24.24659207463 37.514280032895
0.0036706163394 -48.49318414926 37.514280032895
0.003670616339393 -48.49318414926 25.0
42.0 -24.24659207463 25.0
54.990381056766935 -16.746592074630616 52.514280032895
-12.986710440427531 -55.99318414925939 52.51428003289501
67.98076211353387 -9.246592074631227 25.0
-25.977091497194476 -63.49318414925878 25.000000000000014
-61.90267521143 35.739526196877 25.0
-7.829385288242e-14 71.479052393754 25.0
-61.90267521143 -35.73952619687 25.0
-1.387778780781e-15 -71.47905239375 25.0
61.90267521143 -35.73952619687 25.0
61.90267521143 35.739526196877 25.0
0.003670616339397 48.493184149265 25.0
42.0 24.246592074633 25.0
42.0 -24.24659207463 25.0
0.003670616339393 -48.49318414926 25.0
-41.99265876732 -24.24659207463 25.0
-41.99265876732 24.246592074633 25.0
-84.40267521143046 -48.72990725363632 25.0
-1.387778780781e-15 -97.45981450728263 25.0
-84.40267521143 48.72990725364359 25.0
84.40267521143046 -48.72990725363632 25.0
-9.161652917792188e-14 97.45981450728718 25.0
84.40267521142998 48.729907253643596 25.0
0.003670616339406 48.493184149265 37.514280032895
42.0 24.246592074633 37.514280032895
42.0 24.246592074633 25.0
0.003670616339397 48.493184149265 25.0
-12.986710440427261 55.99318414926485 52.514280032895016
54.990381056766665 16.74659207463315 52.514280032895
-25.977091497193936 63.49318414926471 25.000000000000018
67.98076211353333 9.246592074633295 25.0
-41.99265876732 24.246592074633 37.514280032895
0.003670616339406 48.493184149265 37.514280032895
0.003670616339397 48.493184149265 25.0
-41.99265876732 24.246592074633 25.0
-54.983039824086575 16.746592074632982 52.514280032895
12.994051673105982 55.993184149265005 52.51428003289499
-67.97342088085315 9.246592074632973 25.0
25.984432729872548 63.493184149265026 24.999999999999982
-41.99265876732 -24.24659207463 37.514280032895
-41.99265876732 24.246592074633 37.514280032895
-41.99265876732 24.246592074633 25.0
-41.99265876732 -24.24659207463 25.0
-41.99265876732 -39.24659207463 52.514280032895
-41.99265876732 39.246592074633 52.514280032895
-41.99265876732 -54.24659207463 25.0
-41.99265876732 54.246592074633 25.0
0.0036706163394 -48.49318414926 37.514280032895
-41.99265876732 -24.24659207463 37.514280032895
-41.99265876732 -24.24659207463 25.0
0.003670616339393 -48.49318414926 25.0
12.994051673106242 -55.993184149259555 52.514280032894995
-54.983039824086845 -16.746592074630453 52.514280032895
25.984432729873074 -63.49318414925911 24.999999999999986
-67.97342088085368 -9.246592074630904 25.0
75.0 -43.30127018922 12.514280032895
0.0 -86.60254037844 12.514280032895
0.0 -86.60254037844 0.0
75.0 -43.30127018922 0.0
87.99038105676672 -35.80127018922025 27.514280032895
-12.990381056766726 -94.10254037843974 27.514280032895
100.98076211353344 -28.301270189220496 0.0
-25.98076211353345 -101.6025403784395 0.0
75.0 43.301270189222 12.514280032895
75.0 -43.30127018922 12.514280032895
75.0 -43.30127018922 0.0
75.0 43.301270189222 0.0
75.0 58.301270189222 27.514280032895
75.0 -58.30127018922 27.514280032895
75.0 73.30127018922201 0.0
75.0 -73.30127018921999 0.0
-8.893089774491e-14 86.602540378444 12.514280032895
75.0 43.301270189222 12.514280032895
75.0 43.301270189222 0.0
-6.245004513517e-14 86.602540378444 0.0
-12.990381056766665 94.102540378444 27.514280032894973
87.99038105676658 35.801270189221995 27.514280032895
-25.980762113533217 101.60254037844402 -5.497661314983624e-14
100.98076211353316 28.301270189221995 0.0
-75.0 43.301270189222 12.514280032895
-8.893089774491e-14 86.602540378444 12.514280032895
-6.245004513517e-14 86.602540378444 0.0
-75.0 43.301270189222 0.0
-87.99038105676658 35.801270189222 27.514280032895
12.990381056766473 94.10254037844403 27.514280032895027
-100.98076211353315 28.301270189221974 0.0
25.980762113533082 101.60254037844403 5.4976613149836216e-14
0.0 -86.60254037844 12.514280032895
-75.0 -43.30127018922 12.514280032895
-75.0 -43.30127018922 0.0
0.0 -86.60254037844 0.0
12.990381056766726 -94.10254037843974 27.514280032895
-87.99038105676672 -35.80127018922025 27.514280032895
25.98076211353345 -101.6025403784395 0.0
-100.98076211353344 -28.301270189220496 0.0
-75.0 -43.30127018922 12.514280032895
-75.0 43.301270189222 12.514280032895
-75.0 43.301270189222 0.0
-75.0 -43.30127018922 0.0
-75.0 -58.30127018922 27.514280032895
-75.0 58.301270189222 27.514280032895
-75.0 -73.30127018921999 0.0
-75.0 73.30127018922201 0.0
-75.0 43.301270189222 0.0
-6.245004513517e-14 86.602540378444 0.0
-75.0 -43.30127018922 0.0
0.0 -86.60254037844 0.0
75.0 -43.30127018922 0.0
75.0 43.301270189222 0.0
-28.89533397875 16.684848082287 50.0
0.003670616339402 33.369696164575 50.0
-28.89533397875 -16.68484808228 50.0
0.003670616339401 -33.36969616457 50.0
28.90267521143 -16.68484808228 50.0
28.90267521143 16.684848082287 50.0
-51.39533397875098 -29.67522913904601 50.0
0.0036706163391678533 -59.35045827810216 50.0
51.40267521143075 -29.675229139046145 50.0
-51.3953339787503 29.675229139053407 50.0
0.0036706163391671876 59.350458278107936 50.0
51.402675211430065 29.67522913905354 50.0

CELLS 140 560
3 0 1 2
3 0 2 3
3 0 4 5
3 0 1 5
3 0 4 6
3 0 3 6
3 1 5 7
3 1 2 7
3 8 9 10
3 8 10 11
3 8 12 13
3 8 9 13
3 8 12 14
3 8 11 14
3 9 13 15
3 9 10 15
3 26 18 19
3 25 26 19
3 27 16 18
3 27 18 26
3 20 24 25
3 20 25 19
3 17 27 22
3 17 16 27
3 21 22 23
3 21 23 24
3 21 24 20
3 21 17 22
3 18 28 29
3 18 19 29
3 16 30 28
3 16 18 28
3 19 29 31
3 19 20 31
3 16 30 32
3 16 17 32
3 20 31 33
3 20 21 33
3 17 32 33
3 17 21 33
3 34 35 36
3 34 36 37
3 34 38 39
3 34 35 39
3 34 38 40
3 34 37 40
3 35 39 41
3 35 36 41
3 42 43 44
3 42 44 45
3 42 46 47
3 42 43 47
3 42 46 48
3 42 45 48
3 43 47 49
3 43 44 49
3 50 51 52
3 50 52 53
3 50 54 55
3 50 51 55
3 50 54 56
3 50 53 56
3 51 55 57
3 51 52 57
3 58 59 60
3 58 60 61
3 58 62 63
3 58 59 63
3 58 62 64
3 58 61 64
3 59 63 65
3 59 60 65
3 66 67 68
3 66 68 69
3 66 70 71
3 66 67 71
3 66 70 72
3 66 69 72
3 67 71 73
3 67 68 73
3 77 74 75
3 77 75 76
3 74 78 79
3 74 75 79
3 74 78 80
3 74 77 80
3 75 79 81
3 75 76 81
3 82 83 84
3 82 84 85
3 82 86 87
3 82 83 87
3 82 86 88
3 82 85 88
3 83 87 89
3 83 84 89
3 90 91 92
3 90 92 93
3 90 94 95
3 90 91 95
3 90 94 96
3 90 93 96
3 91 95 97
3 91 92 97
3 98 99 100
3 98 100 101
3 98 102 103
3 98 99 103
3 98 102 104
3 98 101 104
3 99 103 105
3 99 100 105
3 106 107 108
3 106 108 109
3 106 110 111
3 106 107 111
3 106 110 112
3 106 109 112
3 107 111 113
3 107 108 113
3 118 116 117
3 119 115 114
3 119 114 116
3 119 116 118
3 124 122 123
3 121 120 122
3 125 122 124
3 125 121 122
3 122 126 127
3 122 123 127
3 123 127 128
3 123 124 128
3 120 129 130
3 120 121 130
3 120 129 126
3 120 122 126
3 124 128 131
3 124 125 131
3 121 130 131
3 121 125 131

CELL_TYPES 140
5
5
5
5
5
5
5
5
5
5
5
5
5
5
5
5
5
5
5
5
5
5
5
5
5
5
5
5
5
5
5
5
5
5
5
5
5
5
5
5
5
5
5
5
5
5
5
5
5
5
5
5
5
5
5
5
5
5
5
5
5
5
5
5
5
5
5
5
5
5
5
5
5
5
5
5
5
5
5
5
5
5
5
5
5
5
5
5
5
5
5
5
5
5
5
5
5
5
5
5
5
5
5
5
5
5
5
5
5
5
5
5
5
5
5
5
5
5
5
5
5
5
5
5
5
5
5
5
5
5
5
5
5
5
5
5
5
5
5
5

CELL_DATA 140
SCALARS labels int 1
LOOKUP_TABLE default
0
0
1
1
1
1
1
1
0
0
1
1
1
1
1
1
0
0
0
0
0
0
0
0
0
0
0
0
1
1
1
1
1
1
1
1
1
1
1
1
0
0
1
1
1
1
1
1
0
0
1
1
1
1
1
1
0
0
1
1
1
1
1
1
0
0
1
1
1
1
1
1
0
0
1
1
1
1
1
1
0
0
1
1
1
1
1
1
0
0
1
1
1
1
1
1
0
0
1
1
1
1
1
1
0
0
1
1
1
1
1
1
0
0
1
1
1
1
1
1
0
0
0
0
0
0
0
0
1
1
1
1
1
1
1
1
1
1
1
1
